VARIABLES = "x"  "Cp"
ZONE T="zerod"
1.000000 0.251020
0.991020 0.226740
0.979240 0.193160
0.965890 0.159790
0.951070 0.127190
0.935030 0.096360
0.918080 0.067980
0.900490 0.041830
0.882490 0.017790
0.864230 -0.004130
0.845820 -0.024890
0.827320 -0.044370
0.808750 -0.062490
0.790150 -0.080130
0.771520 -0.096780
0.752880 -0.113130
0.734240 -0.128920
0.715590 -0.144430
0.696940 -0.159610
0.678300 -0.174560
0.659680 -0.189410
0.641060 -0.204000
0.622460 -0.218580
0.603880 -0.232860
0.585330 -0.247140
0.566810 -0.260670
0.548320 -0.274150
0.529860 -0.286760
0.511450 -0.299060
0.493080 -0.312740
0.474770 -0.336620
0.456510 -0.384410
0.438310 -0.411090
0.420180 -0.421370
0.402120 -0.434550
0.384150 -0.449440
0.366270 -0.465340
0.348490 -0.482250
0.330830 -0.499940
0.313300 -0.518320
0.295920 -0.537430
0.278720 -0.557510
0.261720 -0.578250
0.244980 -0.600510
0.228560 -0.624350
0.212540 -0.650920
0.197020 -0.681100
0.182120 -0.714730
0.167910 -0.747040
0.154410 -0.774950
0.141600 -0.796070
0.129490 -0.808080
0.118060 -0.809920
0.107300 -0.800600
0.097230 -0.780180
0.087820 -0.748590
0.079080 -0.707220
0.071000 -0.655730
0.063550 -0.597000
0.056730 -0.530860
0.050480 -0.459580
0.044790 -0.383800
0.039620 -0.305440
0.034910 -0.223340
0.030640 -0.140330
0.026770 -0.055890
0.023270 0.029670
0.020090 0.116060
0.017210 0.202890
0.014620 0.289720
0.012270 0.376720
0.010170 0.463200
0.008290 0.549620
0.006610 0.632540
0.005140 0.713900
0.003860 0.790440
0.002770 0.859190
0.001860 0.919340
0.001130 0.965190
0.000580 0.993180
0.000220 0.999160
0.000030 0.979350
0.000020 0.929760
0.000180 0.846400
0.000560 0.725590
0.001170 0.568110
0.002030 0.388310
0.003160 0.200580
0.004540 0.030020
0.006180 -0.120420
0.008060 -0.236690
0.010180 -0.321800
0.012540 -0.378710
0.015140 -0.412850
0.017980 -0.430070
0.021080 -0.435360
0.024470 -0.430320
0.028170 -0.419250
0.032240 -0.404020
0.036720 -0.385760
0.041690 -0.366040
0.047220 -0.345560
0.053420 -0.324950
0.060430 -0.305020
0.068400 -0.286930
0.077490 -0.271210
0.087860 -0.259050
0.099620 -0.251660
0.112780 -0.250330
0.127200 -0.255380
0.142600 -0.266750
0.158650 -0.282840
0.175050 -0.302000
0.191600 -0.321020
0.208200 -0.335600
0.224900 -0.342060
0.241730 -0.344250
0.258710 -0.343440
0.275840 -0.340330
0.293130 -0.335640
0.310550 -0.329690
0.328100 -0.322740
0.345780 -0.314980
0.363570 -0.306600
0.381470 -0.297780
0.399460 -0.288440
0.417540 -0.278940
0.435690 -0.269030
0.453920 -0.259160
0.472220 -0.249030
0.490580 -0.238940
0.508990 -0.228800
0.527460 -0.218750
0.545970 -0.208790
0.564520 -0.199040
0.583110 -0.189500
0.601730 -0.180340
0.620380 -0.171550
0.639050 -0.163320
0.657750 -0.155930
0.676460 -0.149910
0.695180 -0.139080
0.713920 -0.099650
0.732660 -0.073830
0.751400 -0.060390
0.770130 -0.050510
0.788860 -0.040180
0.807560 -0.028670
0.826230 -0.016020
0.844840 -0.001890
0.863360 0.013490
0.881720 0.030840
0.899830 0.050010
0.917530 0.071460
0.934590 0.095330
0.950730 0.122350
0.965640 0.152430
0.979090 0.185730
0.990950 0.222900
1.000000 0.251020
1.000000 0.251020
ZONE T="fived"
1.000000 0.232320
0.991020 0.215300
0.979240 0.190880
0.965890 0.162990
0.951070 0.132340
0.935030 0.100190
0.918080 0.067960
0.900490 0.036400
0.882490 0.005980
0.864230 -0.022920
0.845820 -0.050680
0.827320 -0.077320
0.808750 -0.102750
0.790150 -0.127600
0.771520 -0.151650
0.752880 -0.175250
0.734240 -0.198520
0.715590 -0.221620
0.696940 -0.244440
0.678300 -0.267340
0.659680 -0.290340
0.641060 -0.313410
0.622460 -0.336840
0.603880 -0.360350
0.585330 -0.384450
0.566810 -0.408680
0.548320 -0.433740
0.529860 -0.459020
0.511450 -0.485110
0.493080 -0.511820
0.474770 -0.538990
0.456510 -0.567170
0.438310 -0.596100
0.420180 -0.625820
0.402120 -0.656290
0.384150 -0.688050
0.366270 -0.720380
0.348490 -0.753890
0.330830 -0.788370
0.313300 -0.823260
0.295920 -0.858580
0.278720 -0.893900
0.261720 -0.926630
0.244980 -0.958650
0.228560 -1.015810
0.212540 -1.241960
0.197020 -1.277720
0.182120 -1.315870
0.167910 -1.361130
0.154410 -1.416500
0.141600 -1.478680
0.129490 -1.538720
0.118060 -1.590180
0.107300 -1.630950
0.097230 -1.658940
0.087820 -1.674780
0.079080 -1.677880
0.071000 -1.669350
0.063550 -1.651110
0.056730 -1.622500
0.050480 -1.586640
0.044790 -1.542980
0.039620 -1.494900
0.034910 -1.440090
0.030640 -1.383010
0.026770 -1.320820
0.023270 -1.254940
0.020090 -1.185440
0.017210 -1.112200
0.014620 -1.034460
0.012270 -0.952450
0.010170 -0.864990
0.008290 -0.771770
0.006610 -0.671270
0.005140 -0.561940
0.003860 -0.444500
0.002770 -0.319160
0.001860 -0.182920
0.001130 -0.038680
0.000580 0.110660
0.000220 0.265400
0.000030 0.416660
0.000020 0.560690
0.000560 0.816270
0.001170 0.912140
0.002030 0.974930
0.003160 0.999540
0.004540 0.989070
0.006180 0.951060
0.008060 0.896930
0.010180 0.834970
0.012540 0.771950
0.015140 0.711830
0.017980 0.656090
0.021080 0.606400
0.024470 0.562130
0.028170 0.522430
0.032240 0.487780
0.036720 0.456660
0.041690 0.428960
0.047220 0.403510
0.053420 0.379920
0.060430 0.357660
0.068400 0.335960
0.077490 0.313550
0.087860 0.290700
0.099620 0.265580
0.112780 0.238370
0.127200 0.207960
0.142600 0.175510
0.158650 0.141050
0.175050 0.106240
0.191600 0.072890
0.208200 0.044110
0.224900 0.022750
0.241730 0.005750
0.258710 -0.007940
0.275840 -0.019120
0.293130 -0.028130
0.310550 -0.035410
0.328100 -0.041090
0.345780 -0.045500
0.363570 -0.048770
0.381470 -0.051110
0.399460 -0.052410
0.417540 -0.053170
0.435690 -0.052870
0.453920 -0.052410
0.472220 -0.051120
0.490580 -0.049500
0.508990 -0.047430
0.527460 -0.045020
0.545970 -0.042190
0.583110 -0.035780
0.601730 -0.032140
0.620380 -0.028220
0.639050 -0.024060
0.657750 -0.019640
0.676460 -0.014960
0.695180 -0.009960
0.713920 -0.004640
0.732660 0.001070
0.751400 0.007220
0.770130 0.013620
0.788860 0.020640
0.807560 0.028140
0.826230 0.036020
0.844840 0.044130
0.863360 0.052040
0.881720 0.059310
0.899830 0.065480
0.917530 0.070630
0.934590 0.075030
0.950730 0.078650
0.965640 0.081760
0.979090 0.104680
0.990950 0.183380
1.000000 0.232320
1.000000 0.232320
ZONE T="tend"
1.000000 0.178050
0.979240 0.154050
0.951070 0.113520
0.918080 0.058910
0.882490 -0.003630
0.845820 -0.068140
0.808750 -0.131870
0.771520 -0.194240
0.734240 -0.255520
0.696940 -0.316600
0.659680 -0.378440
0.622460 -0.441890
0.585330 -0.507510
0.548320 -0.576330
0.511450 -0.649060
0.474770 -0.726610
0.438310 -0.810090
0.402120 -0.900300
0.366270 -0.998970
0.330830 -1.107670
0.295920 -1.228200
0.261720 -1.364100
0.228560 -1.518610
0.197020 -1.698930
0.167910 -1.928760
0.141600 -2.429210
0.118060 -2.541630
0.097230 -2.699530
0.079080 -2.851690
0.063550 -2.960170
0.050480 -3.028370
0.039620 -3.066450
0.030640 -3.083740
0.023270 -3.085410
0.017210 -3.074510
0.012270 -3.046660
0.008290 -2.994090
0.005140 -2.901370
0.002770 -2.742800
0.001130 -2.484930
0.000220 -2.100330
0.000020 -1.598540
0.000560 -0.975870
0.002030 -0.263490
0.004540 0.357270
0.008060 0.754640
0.012540 0.940990
0.017980 0.997930
0.024470 0.988350
0.032240 0.947830
0.041690 0.893680
0.053420 0.833050
0.068400 0.768300
0.087860 0.698940
0.112780 0.623400
0.142600 0.542100
0.175050 0.458930
0.208200 0.383040
0.241730 0.326100
0.275840 0.281370
0.310550 0.245360
0.345780 0.216330
0.381470 0.192730
0.417540 0.173770
0.453920 0.158370
0.490580 0.146110
0.527460 0.136190
0.564520 0.128350
0.601730 0.122220
0.639050 0.117590
0.676460 0.114340
0.713920 0.112560
0.751400 0.112410
0.788860 0.113680
0.826230 0.117460
0.863360 0.124250
0.899830 0.135620
0.934590 0.151690
0.965640 0.167440
0.990950 0.175740
0.990950 0.175740
