VARIABLES = "x"  "y"  "u"  "v"  "velocitymagnitude"
ZONE I=101 J=101  F=POINT
 -1.000000 -1.000000 0.920423 -0.079577 0.923856
 -0.980000 -1.000000 0.920439 -0.081185 0.924012
 -0.960000 -1.000000 0.920489 -0.082824 0.924207
 -0.940000 -1.000000 0.920575 -0.084495 0.924444
 -0.920000 -1.000000 0.920698 -0.086197 0.924725
 -0.900000 -1.000000 0.920862 -0.087931 0.925051
 -0.880000 -1.000000 0.921068 -0.089695 0.925425
 -0.860000 -1.000000 0.921319 -0.091489 0.925851
 -0.840000 -1.000000 0.921617 -0.093313 0.926329
 -0.820000 -1.000000 0.921964 -0.095166 0.926863
 -0.800000 -1.000000 0.922363 -0.097046 0.927455
 -0.780000 -1.000000 0.922817 -0.098952 0.928107
 -0.760000 -1.000000 0.923328 -0.100884 0.928823
 -0.740000 -1.000000 0.923899 -0.102840 0.929604
 -0.720000 -1.000000 0.924531 -0.104818 0.930454
 -0.700000 -1.000000 0.925229 -0.106815 0.931375
 -0.680000 -1.000000 0.925995 -0.108831 0.932368
 -0.660000 -1.000000 0.926830 -0.110863 0.933437
 -0.640000 -1.000000 0.927739 -0.112908 0.934584
 -0.620000 -1.000000 0.928723 -0.114963 0.935811
 -0.600000 -1.000000 0.929785 -0.117026 0.937120
 -0.580000 -1.000000 0.930926 -0.119092 0.938513
 -0.560000 -1.000000 0.932151 -0.121159 0.939992
 -0.540000 -1.000000 0.933460 -0.123223 0.941558
 -0.520000 -1.000000 0.934855 -0.125279 0.943212
 -0.500000 -1.000000 0.936338 -0.127324 0.944955
 -0.480000 -1.000000 0.937911 -0.129352 0.946789
 -0.460000 -1.000000 0.939575 -0.131359 0.948713
 -0.440000 -1.000000 0.941330 -0.133340 0.950727
 -0.420000 -1.000000 0.943178 -0.135290 0.952832
 -0.400000 -1.000000 0.945119 -0.137203 0.955026
 -0.380000 -1.000000 0.947152 -0.139073 0.957308
 -0.360000 -1.000000 0.949278 -0.140895 0.959677
 -0.340000 -1.000000 0.951495 -0.142663 0.962130
 -0.320000 -1.000000 0.953801 -0.144371 0.964666
 -0.300000 -1.000000 0.956196 -0.146014 0.967280
 -0.280000 -1.000000 0.958676 -0.147584 0.969970
 -0.260000 -1.000000 0.961240 -0.149077 0.972731
 -0.240000 -1.000000 0.963883 -0.150487 0.975560
 -0.220000 -1.000000 0.966602 -0.151807 0.978451
 -0.200000 -1.000000 0.969393 -0.153034 0.981398
 -0.180000 -1.000000 0.972251 -0.154160 0.984397
 -0.160000 -1.000000 0.975171 -0.155182 0.987441
 -0.140000 -1.000000 0.978147 -0.156095 0.990523
 -0.120000 -1.000000 0.981173 -0.156896 0.993638
 -0.100000 -1.000000 0.984242 -0.157579 0.996777
 -0.080000 -1.000000 0.987349 -0.158143 0.999933
 -0.060000 -1.000000 0.990485 -0.158584 1.003100
 -0.040000 -1.000000 0.993644 -0.158901 1.006269
 -0.020000 -1.000000 0.996818 -0.159091 1.009434
 0.000000 -1.000000 1.000000 -0.159155 1.012586
 0.020000 -1.000000 1.003182 -0.159091 1.015718
 0.040000 -1.000000 1.006356 -0.158901 1.018824
 0.060000 -1.000000 1.009515 -0.158584 1.021895
 0.080000 -1.000000 1.012651 -0.158143 1.024925
 0.100000 -1.000000 1.015758 -0.157579 1.027908
 0.120000 -1.000000 1.018827 -0.156896 1.030837
 0.140000 -1.000000 1.021853 -0.156095 1.033707
 0.160000 -1.000000 1.024829 -0.155182 1.036512
 0.180000 -1.000000 1.027749 -0.154160 1.039246
 0.200000 -1.000000 1.030607 -0.153034 1.041907
 0.220000 -1.000000 1.033398 -0.151807 1.044488
 0.240000 -1.000000 1.036117 -0.150487 1.046988
 0.260000 -1.000000 1.038760 -0.149077 1.049403
 0.280000 -1.000000 1.041324 -0.147584 1.051730
 0.300000 -1.000000 1.043804 -0.146014 1.053967
 0.320000 -1.000000 1.046199 -0.144371 1.056113
 0.340000 -1.000000 1.048505 -0.142663 1.058167
 0.360000 -1.000000 1.050722 -0.140895 1.060127
 0.380000 -1.000000 1.052848 -0.139073 1.061993
 0.400000 -1.000000 1.054881 -0.137203 1.063766
 0.420000 -1.000000 1.056822 -0.135290 1.065446
 0.440000 -1.000000 1.058670 -0.133340 1.067034
 0.460000 -1.000000 1.060425 -0.131359 1.068530
 0.480000 -1.000000 1.062089 -0.129352 1.069937
 0.500000 -1.000000 1.063662 -0.127324 1.071255
 0.520000 -1.000000 1.065145 -0.125279 1.072487
 0.540000 -1.000000 1.066540 -0.123223 1.073635
 0.560000 -1.000000 1.067849 -0.121159 1.074701
 0.580000 -1.000000 1.069074 -0.119092 1.075686
 0.600000 -1.000000 1.070215 -0.117026 1.076595
 0.620000 -1.000000 1.071277 -0.114963 1.077428
 0.640000 -1.000000 1.072261 -0.112908 1.078189
 0.660000 -1.000000 1.073170 -0.110863 1.078881
 0.680000 -1.000000 1.074005 -0.108831 1.079505
 0.700000 -1.000000 1.074771 -0.106815 1.080066
 0.720000 -1.000000 1.075469 -0.104818 1.080564
 0.740000 -1.000000 1.076101 -0.102840 1.081004
 0.760000 -1.000000 1.076672 -0.100884 1.081388
 0.780000 -1.000000 1.077183 -0.098952 1.081718
 0.800000 -1.000000 1.077637 -0.097046 1.081997
 0.820000 -1.000000 1.078036 -0.095166 1.082228
 0.840000 -1.000000 1.078383 -0.093313 1.082413
 0.860000 -1.000000 1.078681 -0.091489 1.082554
 0.880000 -1.000000 1.078932 -0.089695 1.082654
 0.900000 -1.000000 1.079138 -0.087931 1.082714
 0.920000 -1.000000 1.079302 -0.086197 1.082738
 0.940000 -1.000000 1.079425 -0.084495 1.082727
 0.960000 -1.000000 1.079511 -0.082824 1.082684
 0.980000 -1.000000 1.079561 -0.081185 1.082610
 1.000000 -1.000000 1.079577 -0.079577 1.082506
 -1.000000 -0.980000 0.918815 -0.079561 0.922253
 -0.980000 -0.980000 0.918798 -0.081202 0.922380
 -0.960000 -0.980000 0.918816 -0.082876 0.922546
 -0.940000 -0.980000 0.918869 -0.084583 0.922754
 -0.920000 -0.980000 0.918960 -0.086325 0.923006
 -0.900000 -0.980000 0.919092 -0.088100 0.923305
 -0.880000 -0.980000 0.919267 -0.089908 0.923653
 -0.860000 -0.980000 0.919486 -0.091748 0.924052
 -0.840000 -0.980000 0.919754 -0.093621 0.924506
 -0.820000 -0.980000 0.920072 -0.095524 0.925017
 -0.800000 -0.980000 0.920442 -0.097458 0.925588
 -0.780000 -0.980000 0.920869 -0.099421 0.926220
 -0.760000 -0.980000 0.921354 -0.101412 0.926918
 -0.740000 -0.980000 0.921900 -0.103430 0.927684
 -0.720000 -0.980000 0.922510 -0.105472 0.928520
 -0.700000 -0.980000 0.923188 -0.107537 0.929430
 -0.680000 -0.980000 0.923935 -0.109623 0.930416
 -0.660000 -0.980000 0.924755 -0.111728 0.931480
 -0.640000 -0.980000 0.925650 -0.113848 0.932625
 -0.620000 -0.980000 0.926624 -0.115981 0.933854
 -0.600000 -0.980000 0.927679 -0.118125 0.935169
 -0.580000 -0.980000 0.928817 -0.120274 0.936572
 -0.560000 -0.980000 0.930042 -0.122427 0.938065
 -0.540000 -0.980000 0.931355 -0.124578 0.939650
 -0.520000 -0.980000 0.932759 -0.126724 0.941328
 -0.500000 -0.980000 0.934255 -0.128860 0.943100
 -0.480000 -0.980000 0.935846 -0.130981 0.944968
 -0.460000 -0.980000 0.937533 -0.133082 0.946931
 -0.440000 -0.980000 0.939317 -0.135158 0.948991
 -0.420000 -0.980000 0.941199 -0.137203 0.951147
 -0.400000 -0.980000 0.943179 -0.139211 0.953397
 -0.380000 -0.980000 0.945258 -0.141177 0.955742
 -0.360000 -0.980000 0.947435 -0.143093 0.958180
 -0.340000 -0.980000 0.949709 -0.144955 0.960708
 -0.320000 -0.980000 0.952080 -0.146756 0.963324
 -0.300000 -0.980000 0.954544 -0.148488 0.966025
 -0.280000 -0.980000 0.957101 -0.150146 0.968807
 -0.260000 -0.980000 0.959747 -0.151724 0.971666
 -0.240000 -0.980000 0.962478 -0.153214 0.974597
 -0.220000 -0.980000 0.965291 -0.154611 0.977595
 -0.200000 -0.980000 0.968182 -0.155909 0.980655
 -0.180000 -0.980000 0.971144 -0.157103 0.983770
 -0.160000 -0.980000 0.974174 -0.158186 0.986933
 -0.140000 -0.980000 0.977264 -0.159155 0.990139
 -0.120000 -0.980000 0.980408 -0.160004 0.993378
 -0.100000 -0.980000 0.983599 -0.160729 0.996645
 -0.080000 -0.980000 0.986830 -0.161328 0.999930
 -0.060000 -0.980000 0.990094 -0.161797 1.003227
 -0.040000 -0.980000 0.993382 -0.162133 1.006526
 -0.020000 -0.980000 0.996687 -0.162335 1.009821
 0.000000 -0.980000 1.000000 -0.162403 1.013102
 0.020000 -0.980000 1.003313 -0.162335 1.016361
 0.040000 -0.980000 1.006618 -0.162133 1.019591
 0.060000 -0.980000 1.009906 -0.161797 1.022784
 0.080000 -0.980000 1.013170 -0.161328 1.025933
 0.100000 -0.980000 1.016401 -0.160729 1.029031
 0.120000 -0.980000 1.019592 -0.160004 1.032071
 0.140000 -0.980000 1.022736 -0.159155 1.035046
 0.160000 -0.980000 1.025826 -0.158186 1.037951
 0.180000 -0.980000 1.028856 -0.157103 1.040781
 0.200000 -0.980000 1.031818 -0.155909 1.043531
 0.220000 -0.980000 1.034709 -0.154611 1.046196
 0.240000 -0.980000 1.037522 -0.153214 1.048774
 0.260000 -0.980000 1.040253 -0.151724 1.051260
 0.280000 -0.980000 1.042899 -0.150146 1.053652
 0.300000 -0.980000 1.045456 -0.148488 1.055948
 0.320000 -0.980000 1.047920 -0.146756 1.058146
 0.340000 -0.980000 1.050291 -0.144955 1.060246
 0.360000 -0.980000 1.052565 -0.143093 1.062247
 0.380000 -0.980000 1.054742 -0.141177 1.064148
 0.400000 -0.980000 1.056821 -0.139211 1.065950
 0.420000 -0.980000 1.058801 -0.137203 1.067654
 0.440000 -0.980000 1.060683 -0.135158 1.069260
 0.460000 -0.980000 1.062467 -0.133082 1.070769
 0.480000 -0.980000 1.064154 -0.130981 1.072184
 0.500000 -0.980000 1.065745 -0.128860 1.073507
 0.520000 -0.980000 1.067241 -0.126724 1.074739
 0.540000 -0.980000 1.068645 -0.124578 1.075882
 0.560000 -0.980000 1.069958 -0.122427 1.076940
 0.580000 -0.980000 1.071183 -0.120274 1.077914
 0.600000 -0.980000 1.072321 -0.118125 1.078808
 0.620000 -0.980000 1.073376 -0.115981 1.079624
 0.640000 -0.980000 1.074350 -0.113848 1.080365
 0.660000 -0.980000 1.075245 -0.111728 1.081034
 0.680000 -0.980000 1.076065 -0.109623 1.081635
 0.700000 -0.980000 1.076812 -0.107537 1.082169
 0.720000 -0.980000 1.077490 -0.105472 1.082639
 0.740000 -0.980000 1.078100 -0.103430 1.083050
 0.760000 -0.980000 1.078646 -0.101412 1.083403
 0.780000 -0.980000 1.079131 -0.099421 1.083701
 0.800000 -0.980000 1.079558 -0.097458 1.083948
 0.820000 -0.980000 1.079928 -0.095524 1.084145
 0.840000 -0.980000 1.080246 -0.093621 1.084295
 0.860000 -0.980000 1.080514 -0.091748 1.084402
 0.880000 -0.980000 1.080733 -0.089908 1.084467
 0.900000 -0.980000 1.080908 -0.088100 1.084492
 0.920000 -0.980000 1.081040 -0.086325 1.084481
 0.940000 -0.980000 1.081131 -0.084583 1.084435
 0.960000 -0.980000 1.081184 -0.082876 1.084356
 0.980000 -0.980000 1.081202 -0.081202 1.084246
 1.000000 -0.980000 1.081185 -0.079561 1.084108
 -1.000000 -0.960000 0.917176 -0.079511 0.920616
 -0.980000 -0.960000 0.917124 -0.081184 0.920711
 -0.960000 -0.960000 0.917107 -0.082893 0.920845
 -0.940000 -0.960000 0.917125 -0.084638 0.921022
 -0.920000 -0.960000 0.917182 -0.086419 0.921244
 -0.900000 -0.960000 0.917279 -0.088236 0.921513
 -0.880000 -0.960000 0.917420 -0.090088 0.921832
 -0.860000 -0.960000 0.917606 -0.091975 0.922204
 -0.840000 -0.960000 0.917840 -0.093897 0.922631
 -0.820000 -0.960000 0.918126 -0.095852 0.923116
 -0.800000 -0.960000 0.918466 -0.097841 0.923662
 -0.780000 -0.960000 0.918862 -0.099862 0.924273
 -0.760000 -0.960000 0.919318 -0.101914 0.924950
 -0.740000 -0.960000 0.919838 -0.103995 0.925698
 -0.720000 -0.960000 0.920423 -0.106103 0.926518
 -0.700000 -0.960000 0.921076 -0.108238 0.927414
 -0.680000 -0.960000 0.921802 -0.110396 0.928390
 -0.660000 -0.960000 0.922604 -0.112576 0.929447
 -0.640000 -0.960000 0.923483 -0.114775 0.930588
 -0.620000 -0.960000 0.924444 -0.116990 0.931817
 -0.600000 -0.960000 0.925489 -0.119217 0.933136
 -0.580000 -0.960000 0.926622 -0.121454 0.934547
 -0.560000 -0.960000 0.927844 -0.123696 0.936053
 -0.540000 -0.960000 0.929160 -0.125939 0.937656
 -0.520000 -0.960000 0.930570 -0.128178 0.939356
 -0.500000 -0.960000 0.932078 -0.130410 0.941157
 -0.480000 -0.960000 0.933685 -0.132629 0.943058
 -0.460000 -0.960000 0.935394 -0.134829 0.945062
 -0.440000 -0.960000 0.937206 -0.137006 0.947167
 -0.420000 -0.960000 0.939121 -0.139152 0.949374
 -0.400000 -0.960000 0.941141 -0.141262 0.951683
 -0.380000 -0.960000 0.943266 -0.143329 0.954093
 -0.360000 -0.960000 0.945495 -0.145347 0.956601
 -0.340000 -0.960000 0.947828 -0.147309 0.959207
 -0.320000 -0.960000 0.950264 -0.149208 0.961907
 -0.300000 -0.960000 0.952801 -0.151037 0.964698
 -0.280000 -0.960000 0.955437 -0.152789 0.967576
 -0.260000 -0.960000 0.958168 -0.154457 0.970537
 -0.240000 -0.960000 0.960991 -0.156034 0.973577
 -0.220000 -0.960000 0.963903 -0.157514 0.976688
 -0.200000 -0.960000 0.966898 -0.158890 0.979866
 -0.180000 -0.960000 0.969971 -0.160156 0.983104
 -0.160000 -0.960000 0.973116 -0.161306 0.986394
 -0.140000 -0.960000 0.976326 -0.162334 0.989730
 -0.120000 -0.960000 0.979596 -0.163236 0.993103
 -0.100000 -0.960000 0.982916 -0.164007 0.996505
 -0.080000 -0.960000 0.986280 -0.164643 0.999928
 -0.060000 -0.960000 0.989679 -0.165141 1.003362
 -0.040000 -0.960000 0.993104 -0.165499 1.006800
 -0.020000 -0.960000 0.996548 -0.165714 1.010232
 0.000000 -0.960000 1.000000 -0.165786 1.013649
 0.020000 -0.960000 1.003452 -0.165714 1.017044
 0.040000 -0.960000 1.006896 -0.165499 1.020406
 0.060000 -0.960000 1.010321 -0.165141 1.023729
 0.080000 -0.960000 1.013720 -0.164643 1.027003
 0.100000 -0.960000 1.017084 -0.164007 1.030222
 0.120000 -0.960000 1.020404 -0.163236 1.033379
 0.140000 -0.960000 1.023674 -0.162334 1.036465
 0.160000 -0.960000 1.026884 -0.161306 1.039476
 0.180000 -0.960000 1.030029 -0.160156 1.042406
 0.200000 -0.960000 1.033102 -0.158890 1.045249
 0.220000 -0.960000 1.036097 -0.157514 1.048002
 0.240000 -0.960000 1.039009 -0.156034 1.050660
 0.260000 -0.960000 1.041832 -0.154457 1.053219
 0.280000 -0.960000 1.044563 -0.152789 1.055678
 0.300000 -0.960000 1.047199 -0.151037 1.058035
 0.320000 -0.960000 1.049736 -0.149208 1.060287
 0.340000 -0.960000 1.052172 -0.147309 1.062434
 0.360000 -0.960000 1.054505 -0.145347 1.064475
 0.380000 -0.960000 1.056734 -0.143329 1.066410
 0.400000 -0.960000 1.058859 -0.141262 1.068240
 0.420000 -0.960000 1.060879 -0.139152 1.069966
 0.440000 -0.960000 1.062794 -0.137006 1.071589
 0.460000 -0.960000 1.064606 -0.134829 1.073110
 0.480000 -0.960000 1.066315 -0.132629 1.074531
 0.500000 -0.960000 1.067922 -0.130410 1.075855
 0.520000 -0.960000 1.069430 -0.128178 1.077084
 0.540000 -0.960000 1.070840 -0.125939 1.078221
 0.560000 -0.960000 1.072156 -0.123696 1.079268
 0.580000 -0.960000 1.073378 -0.121454 1.080228
 0.600000 -0.960000 1.074511 -0.119217 1.081104
 0.620000 -0.960000 1.075556 -0.116990 1.081900
 0.640000 -0.960000 1.076517 -0.114775 1.082618
 0.660000 -0.960000 1.077396 -0.112576 1.083262
 0.680000 -0.960000 1.078198 -0.110396 1.083835
 0.700000 -0.960000 1.078924 -0.108238 1.084339
 0.720000 -0.960000 1.079577 -0.106103 1.084779
 0.740000 -0.960000 1.080162 -0.103995 1.085157
 0.760000 -0.960000 1.080682 -0.101914 1.085476
 0.780000 -0.960000 1.081138 -0.099862 1.085740
 0.800000 -0.960000 1.081534 -0.097841 1.085951
 0.820000 -0.960000 1.081874 -0.095852 1.086112
 0.840000 -0.960000 1.082160 -0.093897 1.086226
 0.860000 -0.960000 1.082394 -0.091975 1.086295
 0.880000 -0.960000 1.082580 -0.090088 1.086322
 0.900000 -0.960000 1.082721 -0.088236 1.086310
 0.920000 -0.960000 1.082818 -0.086419 1.086261
 0.940000 -0.960000 1.082875 -0.084638 1.086177
 0.960000 -0.960000 1.082893 -0.082893 1.086061
 0.980000 -0.960000 1.082876 -0.081184 1.085915
 1.000000 -0.960000 1.082824 -0.079511 1.085739
 -1.000000 -0.940000 0.915505 -0.079425 0.918944
 -0.980000 -0.940000 0.915417 -0.081131 0.919005
 -0.960000 -0.940000 0.915362 -0.082875 0.919106
 -0.940000 -0.940000 0.915343 -0.084657 0.919250
 -0.920000 -0.940000 0.915363 -0.086477 0.919439
 -0.900000 -0.940000 0.915423 -0.088336 0.919675
 -0.880000 -0.940000 0.915527 -0.090233 0.919963
 -0.860000 -0.940000 0.915677 -0.092167 0.920304
 -0.840000 -0.940000 0.915876 -0.094139 0.920701
 -0.820000 -0.940000 0.916127 -0.096148 0.921158
 -0.800000 -0.940000 0.916432 -0.098192 0.921678
 -0.780000 -0.940000 0.916796 -0.100272 0.922263
 -0.760000 -0.940000 0.917220 -0.102385 0.922917
 -0.740000 -0.940000 0.917709 -0.104532 0.923643
 -0.720000 -0.940000 0.918266 -0.106709 0.924445
 -0.700000 -0.940000 0.918893 -0.108915 0.925325
 -0.680000 -0.940000 0.919595 -0.111148 0.926288
 -0.660000 -0.940000 0.920374 -0.113406 0.927335
 -0.640000 -0.940000 0.921235 -0.115686 0.928470
 -0.620000 -0.940000 0.922180 -0.117986 0.929697
 -0.600000 -0.940000 0.923212 -0.120300 0.931017
 -0.580000 -0.940000 0.924336 -0.122628 0.932435
 -0.560000 -0.940000 0.925554 -0.124963 0.933952
 -0.540000 -0.940000 0.926869 -0.127302 0.935570
 -0.520000 -0.940000 0.928284 -0.129641 0.937293
 -0.500000 -0.940000 0.929801 -0.131974 0.939120
 -0.480000 -0.940000 0.931423 -0.134296 0.941055
 -0.460000 -0.940000 0.933153 -0.136601 0.943098
 -0.440000 -0.940000 0.934991 -0.138884 0.945249
 -0.420000 -0.940000 0.936939 -0.141137 0.947509
 -0.400000 -0.940000 0.938998 -0.143355 0.949878
 -0.380000 -0.940000 0.941168 -0.145531 0.952353
 -0.360000 -0.940000 0.943451 -0.147657 0.954935
 -0.340000 -0.940000 0.945844 -0.149725 0.957621
 -0.320000 -0.940000 0.948347 -0.151730 0.960409
 -0.300000 -0.940000 0.950959 -0.153662 0.963294
 -0.280000 -0.940000 0.953676 -0.155515 0.966273
 -0.260000 -0.940000 0.956497 -0.157281 0.969342
 -0.240000 -0.940000 0.959417 -0.158952 0.972495
 -0.220000 -0.940000 0.962431 -0.160521 0.975726
 -0.200000 -0.940000 0.965536 -0.161981 0.979029
 -0.180000 -0.940000 0.968725 -0.163325 0.982397
 -0.160000 -0.940000 0.971992 -0.164546 0.985822
 -0.140000 -0.940000 0.975330 -0.165640 0.989296
 -0.120000 -0.940000 0.978732 -0.166599 0.992810
 -0.100000 -0.940000 0.982189 -0.167419 0.996356
 -0.080000 -0.940000 0.985694 -0.168096 0.999924
 -0.060000 -0.940000 0.989237 -0.168627 1.003506
 -0.040000 -0.940000 0.992808 -0.169008 1.007091
 -0.020000 -0.940000 0.996399 -0.169237 1.010669
 0.000000 -0.940000 1.000000 -0.169314 1.014232
 0.020000 -0.940000 1.003601 -0.169237 1.017770
 0.040000 -0.940000 1.007192 -0.169008 1.021273
 0.060000 -0.940000 1.010763 -0.168627 1.024733
 0.080000 -0.940000 1.014306 -0.168096 1.028141
 0.100000 -0.940000 1.017811 -0.167419 1.031488
 0.120000 -0.940000 1.021268 -0.166599 1.034767
 0.140000 -0.940000 1.024670 -0.165640 1.037971
 0.160000 -0.940000 1.028008 -0.164546 1.041094
 0.180000 -0.940000 1.031275 -0.163325 1.044128
 0.200000 -0.940000 1.034464 -0.161981 1.047069
 0.220000 -0.940000 1.037569 -0.160521 1.049912
 0.240000 -0.940000 1.040583 -0.158952 1.052654
 0.260000 -0.940000 1.043503 -0.157281 1.055290
 0.280000 -0.940000 1.046324 -0.155515 1.057818
 0.300000 -0.940000 1.049041 -0.153662 1.060236
 0.320000 -0.940000 1.051653 -0.151730 1.062542
 0.340000 -0.940000 1.054156 -0.149725 1.064736
 0.360000 -0.940000 1.056549 -0.147657 1.066817
 0.380000 -0.940000 1.058832 -0.145531 1.068786
 0.400000 -0.940000 1.061002 -0.143355 1.070643
 0.420000 -0.940000 1.063061 -0.141137 1.072390
 0.440000 -0.940000 1.065009 -0.138884 1.074027
 0.460000 -0.940000 1.066847 -0.136601 1.075557
 0.480000 -0.940000 1.068577 -0.134296 1.076983
 0.500000 -0.940000 1.070199 -0.131974 1.078306
 0.520000 -0.940000 1.071716 -0.129641 1.079529
 0.540000 -0.940000 1.073131 -0.127302 1.080655
 0.560000 -0.940000 1.074446 -0.124963 1.081688
 0.580000 -0.940000 1.075664 -0.122628 1.082631
 0.600000 -0.940000 1.076788 -0.120300 1.083487
 0.620000 -0.940000 1.077820 -0.117986 1.084259
 0.640000 -0.940000 1.078765 -0.115686 1.084951
 0.660000 -0.940000 1.079626 -0.113406 1.085566
 0.680000 -0.940000 1.080405 -0.111148 1.086107
 0.700000 -0.940000 1.081107 -0.108915 1.086579
 0.720000 -0.940000 1.081734 -0.106709 1.086985
 0.740000 -0.940000 1.082291 -0.104532 1.087327
 0.760000 -0.940000 1.082780 -0.102385 1.087610
 0.780000 -0.940000 1.083204 -0.100272 1.087835
 0.800000 -0.940000 1.083568 -0.098192 1.088008
 0.820000 -0.940000 1.083873 -0.096148 1.088130
 0.840000 -0.940000 1.084124 -0.094139 1.088204
 0.860000 -0.940000 1.084323 -0.092167 1.088233
 0.880000 -0.940000 1.084473 -0.090233 1.088220
 0.900000 -0.940000 1.084577 -0.088336 1.088168
 0.920000 -0.940000 1.084637 -0.086477 1.088079
 0.940000 -0.940000 1.084657 -0.084657 1.087956
 0.960000 -0.940000 1.084638 -0.082875 1.087800
 0.980000 -0.940000 1.084583 -0.081131 1.087614
 1.000000 -0.940000 1.084495 -0.079425 1.087400
 -1.000000 -0.920000 0.913803 -0.079302 0.917237
 -0.980000 -0.920000 0.913675 -0.081040 0.917262
 -0.960000 -0.920000 0.913581 -0.082818 0.917327
 -0.940000 -0.920000 0.913523 -0.084637 0.917435
 -0.920000 -0.920000 0.913503 -0.086497 0.917589
 -0.900000 -0.920000 0.913524 -0.088398 0.917791
 -0.880000 -0.920000 0.913588 -0.090340 0.918044
 -0.860000 -0.920000 0.913699 -0.092322 0.918351
 -0.840000 -0.920000 0.913859 -0.094344 0.918716
 -0.820000 -0.920000 0.914072 -0.096407 0.919142
 -0.800000 -0.920000 0.914341 -0.098508 0.919632
 -0.780000 -0.920000 0.914668 -0.100648 0.920189
 -0.760000 -0.920000 0.915058 -0.102825 0.920817
 -0.740000 -0.920000 0.915513 -0.105038 0.921519
 -0.720000 -0.920000 0.916038 -0.107285 0.922299
 -0.700000 -0.920000 0.916635 -0.109565 0.923160
 -0.680000 -0.920000 0.917309 -0.111875 0.924106
 -0.660000 -0.920000 0.918064 -0.114214 0.925141
 -0.640000 -0.920000 0.918902 -0.116578 0.926267
 -0.620000 -0.920000 0.919828 -0.118965 0.927489
 -0.600000 -0.920000 0.920845 -0.121371 0.928809
 -0.580000 -0.920000 0.921956 -0.123793 0.930230
 -0.560000 -0.920000 0.923167 -0.126226 0.931756
 -0.540000 -0.920000 0.924478 -0.128667 0.933389
 -0.520000 -0.920000 0.925895 -0.131109 0.935132
 -0.500000 -0.920000 0.927419 -0.133548 0.936985
 -0.480000 -0.920000 0.929054 -0.135979 0.938953
 -0.460000 -0.920000 0.930802 -0.138396 0.941035
 -0.440000 -0.920000 0.932665 -0.140791 0.943232
 -0.420000 -0.920000 0.934645 -0.143159 0.945545
 -0.400000 -0.920000 0.936743 -0.145491 0.947974
 -0.380000 -0.920000 0.938960 -0.147782 0.950518
 -0.360000 -0.920000 0.941295 -0.150023 0.953176
 -0.340000 -0.920000 0.943750 -0.152206 0.955945
 -0.320000 -0.920000 0.946322 -0.154324 0.958823
 -0.300000 -0.920000 0.949011 -0.156368 0.961807
 -0.280000 -0.920000 0.951813 -0.158329 0.964892
 -0.260000 -0.920000 0.954726 -0.160200 0.968073
 -0.240000 -0.920000 0.957746 -0.161972 0.971346
 -0.220000 -0.920000 0.960869 -0.163637 0.974704
 -0.200000 -0.920000 0.964090 -0.165188 0.978139
 -0.180000 -0.920000 0.967401 -0.166616 0.981645
 -0.160000 -0.920000 0.970797 -0.167916 0.985212
 -0.140000 -0.920000 0.974271 -0.169079 0.988833
 -0.120000 -0.920000 0.977813 -0.170101 0.992498
 -0.100000 -0.920000 0.981416 -0.170974 0.996197
 -0.080000 -0.920000 0.985070 -0.171696 0.999921
 -0.060000 -0.920000 0.988766 -0.172262 1.003659
 -0.040000 -0.920000 0.992493 -0.172668 1.007401
 -0.020000 -0.920000 0.996241 -0.172913 1.011136
 0.000000 -0.920000 1.000000 -0.172995 1.014853
 0.020000 -0.920000 1.003759 -0.172913 1.018544
 0.040000 -0.920000 1.007507 -0.172668 1.022196
 0.060000 -0.920000 1.011234 -0.172262 1.025802
 0.080000 -0.920000 1.014930 -0.171696 1.029351
 0.100000 -0.920000 1.018584 -0.170974 1.032834
 0.120000 -0.920000 1.022187 -0.170101 1.036243
 0.140000 -0.920000 1.025729 -0.169079 1.039571
 0.160000 -0.920000 1.029203 -0.167916 1.042811
 0.180000 -0.920000 1.032599 -0.166616 1.045955
 0.200000 -0.920000 1.035910 -0.165188 1.048998
 0.220000 -0.920000 1.039131 -0.163637 1.051936
 0.240000 -0.920000 1.042254 -0.161972 1.054764
 0.260000 -0.920000 1.045274 -0.160200 1.057479
 0.280000 -0.920000 1.048187 -0.158329 1.060077
 0.300000 -0.920000 1.050989 -0.156368 1.062558
 0.320000 -0.920000 1.053678 -0.154324 1.064919
 0.340000 -0.920000 1.056250 -0.152206 1.067160
 0.360000 -0.920000 1.058705 -0.150023 1.069281
 0.380000 -0.920000 1.061040 -0.147782 1.071283
 0.400000 -0.920000 1.063257 -0.145491 1.073165
 0.420000 -0.920000 1.065355 -0.143159 1.074931
 0.440000 -0.920000 1.067335 -0.140791 1.076581
 0.460000 -0.920000 1.069198 -0.138396 1.078117
 0.480000 -0.920000 1.070946 -0.135979 1.079544
 0.500000 -0.920000 1.072581 -0.133548 1.080863
 0.520000 -0.920000 1.074105 -0.131109 1.082077
 0.540000 -0.920000 1.075522 -0.128667 1.083191
 0.560000 -0.920000 1.076833 -0.126226 1.084206
 0.580000 -0.920000 1.078044 -0.123793 1.085128
 0.600000 -0.920000 1.079155 -0.121371 1.085959
 0.620000 -0.920000 1.080172 -0.118965 1.086704
 0.640000 -0.920000 1.081098 -0.116578 1.087365
 0.660000 -0.920000 1.081936 -0.114214 1.087948
 0.680000 -0.920000 1.082691 -0.111875 1.088455
 0.700000 -0.920000 1.083365 -0.109565 1.088891
 0.720000 -0.920000 1.083962 -0.107285 1.089258
 0.740000 -0.920000 1.084487 -0.105038 1.089562
 0.760000 -0.920000 1.084942 -0.102825 1.089804
 0.780000 -0.920000 1.085332 -0.100648 1.089989
 0.800000 -0.920000 1.085659 -0.098508 1.090119
 0.820000 -0.920000 1.085928 -0.096407 1.090199
 0.840000 -0.920000 1.086141 -0.094344 1.090230
 0.860000 -0.920000 1.086301 -0.092322 1.090217
 0.880000 -0.920000 1.086412 -0.090340 1.090161
 0.900000 -0.920000 1.086476 -0.088398 1.090067
 0.920000 -0.920000 1.086497 -0.086497 1.089935
 0.940000 -0.920000 1.086477 -0.084637 1.089769
 0.960000 -0.920000 1.086419 -0.082818 1.089571
 0.980000 -0.920000 1.086325 -0.081040 1.089343
 1.000000 -0.920000 1.086197 -0.079302 1.089088
 -1.000000 -0.900000 0.912069 -0.079138 0.915496
 -0.980000 -0.900000 0.911900 -0.080908 0.915482
 -0.960000 -0.900000 0.911764 -0.082721 0.915509
 -0.940000 -0.900000 0.911664 -0.084577 0.915579
 -0.920000 -0.900000 0.911602 -0.086476 0.915694
 -0.900000 -0.900000 0.911581 -0.088419 0.915859
 -0.880000 -0.900000 0.911603 -0.090406 0.916075
 -0.860000 -0.900000 0.911672 -0.092436 0.916346
 -0.840000 -0.900000 0.911791 -0.094510 0.916676
 -0.820000 -0.900000 0.911962 -0.096627 0.917067
 -0.800000 -0.900000 0.912190 -0.098786 0.917524
 -0.780000 -0.900000 0.912478 -0.100987 0.918049
 -0.760000 -0.900000 0.912830 -0.103228 0.918648
 -0.740000 -0.900000 0.913248 -0.105509 0.919323
 -0.720000 -0.900000 0.913737 -0.107829 0.920077
 -0.700000 -0.900000 0.914301 -0.110184 0.920917
 -0.680000 -0.900000 0.914944 -0.112574 0.921843
 -0.660000 -0.900000 0.915669 -0.114996 0.922862
 -0.640000 -0.900000 0.916481 -0.117448 0.923976
 -0.620000 -0.900000 0.917384 -0.119926 0.925190
 -0.600000 -0.900000 0.918382 -0.122427 0.926506
 -0.580000 -0.900000 0.919478 -0.124947 0.927929
 -0.560000 -0.900000 0.920677 -0.127483 0.929462
 -0.540000 -0.900000 0.921983 -0.130029 0.931107
 -0.520000 -0.900000 0.923398 -0.132580 0.932867
 -0.500000 -0.900000 0.924927 -0.135132 0.934746
 -0.480000 -0.900000 0.926572 -0.137677 0.936745
 -0.460000 -0.900000 0.928337 -0.140211 0.938865
 -0.440000 -0.900000 0.930223 -0.142726 0.941109
 -0.420000 -0.900000 0.932233 -0.145214 0.943476
 -0.400000 -0.900000 0.934369 -0.147670 0.945966
 -0.380000 -0.900000 0.936632 -0.150083 0.948580
 -0.360000 -0.900000 0.939021 -0.152447 0.951315
 -0.340000 -0.900000 0.941538 -0.154753 0.954171
 -0.320000 -0.900000 0.944181 -0.156992 0.957143
 -0.300000 -0.900000 0.946948 -0.159155 0.960230
 -0.280000 -0.900000 0.949839 -0.161233 0.963426
 -0.260000 -0.900000 0.952848 -0.163217 0.966726
 -0.240000 -0.900000 0.955974 -0.165098 0.970125
 -0.220000 -0.900000 0.959210 -0.166868 0.973616
 -0.200000 -0.900000 0.962552 -0.168517 0.977192
 -0.180000 -0.900000 0.965993 -0.170037 0.980844
 -0.160000 -0.900000 0.969525 -0.171421 0.984563
 -0.140000 -0.900000 0.973142 -0.172661 0.988340
 -0.120000 -0.900000 0.976833 -0.173750 0.992166
 -0.100000 -0.900000 0.980591 -0.174682 0.996028
 -0.080000 -0.900000 0.984404 -0.175453 0.999918
 -0.060000 -0.900000 0.988263 -0.176056 1.003822
 -0.040000 -0.900000 0.992156 -0.176490 1.007731
 -0.020000 -0.900000 0.996072 -0.176752 1.011633
 0.000000 -0.900000 1.000000 -0.176839 1.015516
 0.020000 -0.900000 1.003928 -0.176752 1.019369
 0.040000 -0.900000 1.007844 -0.176490 1.023181
 0.060000 -0.900000 1.011737 -0.176056 1.026941
 0.080000 -0.900000 1.015596 -0.175453 1.030640
 0.100000 -0.900000 1.019409 -0.174682 1.034267
 0.120000 -0.900000 1.023167 -0.173750 1.037815
 0.140000 -0.900000 1.026858 -0.172661 1.041273
 0.160000 -0.900000 1.030475 -0.171421 1.044636
 0.180000 -0.900000 1.034007 -0.170037 1.047895
 0.200000 -0.900000 1.037448 -0.168517 1.051046
 0.220000 -0.900000 1.040790 -0.166868 1.054082
 0.240000 -0.900000 1.044026 -0.165098 1.057000
 0.260000 -0.900000 1.047152 -0.163217 1.059795
 0.280000 -0.900000 1.050161 -0.161233 1.062466
 0.300000 -0.900000 1.053052 -0.159155 1.065011
 0.320000 -0.900000 1.055819 -0.156992 1.067427
 0.340000 -0.900000 1.058462 -0.154753 1.069715
 0.360000 -0.900000 1.060979 -0.152447 1.071875
 0.380000 -0.900000 1.063368 -0.150083 1.073908
 0.400000 -0.900000 1.065631 -0.147670 1.075814
 0.420000 -0.900000 1.067767 -0.145214 1.077596
 0.440000 -0.900000 1.069777 -0.142726 1.079256
 0.460000 -0.900000 1.071663 -0.140211 1.080797
 0.480000 -0.900000 1.073428 -0.137677 1.082221
 0.500000 -0.900000 1.075073 -0.135132 1.083532
 0.520000 -0.900000 1.076602 -0.132580 1.084734
 0.540000 -0.900000 1.078017 -0.130029 1.085831
 0.560000 -0.900000 1.079323 -0.127483 1.086825
 0.580000 -0.900000 1.080522 -0.124947 1.087722
 0.600000 -0.900000 1.081618 -0.122427 1.088525
 0.620000 -0.900000 1.082616 -0.119926 1.089238
 0.640000 -0.900000 1.083519 -0.117448 1.089865
 0.660000 -0.900000 1.084331 -0.114996 1.090411
 0.680000 -0.900000 1.085056 -0.112574 1.090880
 0.700000 -0.900000 1.085699 -0.110184 1.091276
 0.720000 -0.900000 1.086263 -0.107829 1.091602
 0.740000 -0.900000 1.086752 -0.105509 1.091862
 0.760000 -0.900000 1.087170 -0.103228 1.092060
 0.780000 -0.900000 1.087522 -0.100987 1.092200
 0.800000 -0.900000 1.087810 -0.098786 1.092286
 0.820000 -0.900000 1.088038 -0.096627 1.092320
 0.840000 -0.900000 1.088209 -0.094510 1.092306
 0.860000 -0.900000 1.088328 -0.092436 1.092247
 0.880000 -0.900000 1.088397 -0.090406 1.092145
 0.900000 -0.900000 1.088419 -0.088419 1.092005
 0.920000 -0.900000 1.088398 -0.086476 1.091828
 0.940000 -0.900000 1.088336 -0.084577 1.091617
 0.960000 -0.900000 1.088236 -0.082721 1.091375