VARIABLES = "x"  "y" 
ZONE T="0"
-1.000000 -0.750000 -0.910186 -0.757639
 -0.820515 -0.766237
 -0.730876 -0.775913
 -0.641114 -0.786782
 -0.551020 -0.798938
 -0.460330 -0.812438
 -0.368732 -0.827267
 -0.275886 -0.843317
 -0.181463 -0.860365
 -0.085199 -0.878076
 0.013059 -0.896032
 0.113318 -0.913790
 0.215445 -0.930944
 0.319200 -0.947171
 0.424285 -0.962260
 0.530391 -0.976108
 0.637231 -0.988696
 0.744561 -1.000069
 0.852184 -1.010308
 0.959948 -1.019512
 1.067739 -1.027787
 1.175476 -1.035235
ZONE T="1"
-1.000000 -0.600000 -0.911703 -0.607022
 -0.823798 -0.615075
 -0.736202 -0.624336
 -0.648777 -0.635000
 -0.561306 -0.647263
 -0.473477 -0.661298
 -0.384868 -0.677208
 -0.294964 -0.694973
 -0.203200 -0.714378
 -0.109063 -0.734989
 -0.012207 -0.756177
 0.087453 -0.777218
 0.189729 -0.797440
 0.294223 -0.816329
 0.400442 -0.833584
 0.507894 -0.849097
 0.616152 -0.862902
 0.724874 -0.875117
 0.833809 -0.885904
 0.942775 -0.895430
 1.051650 -0.903859
 1.160354 -0.911340
ZONE T="2"
-1.000000 -0.450000 -0.913235 -0.455956
 -0.827185 -0.462921
 -0.741837 -0.471120
 -0.657125 -0.480830
 -0.572900 -0.492372
 -0.488878 -0.506104
 -0.404592 -0.522372
 -0.319342 -0.541416
 -0.232205 -0.563225
 -0.142163 -0.587377
 -0.048358 -0.612974
 0.049606 -0.638777
 0.151530 -0.663544
 0.256735 -0.686340
 0.364345 -0.706683
 0.473518 -0.724475
 0.583579 -0.739868
 0.694038 -0.753129
 0.804569 -0.764556
 0.914964 -0.774434
 1.025099 -0.783012
 1.134904 -0.790501
ZONE T="3"
-1.000000 -0.300000 -0.914601 -0.304380
 -0.830268 -0.309594
 -0.747097 -0.315870
 -0.665169 -0.323511
 -0.584519 -0.332922
 -0.505078 -0.344631
 -0.426579 -0.359302
 -0.348405 -0.377685
 -0.269406 -0.400452
 -0.187813 -0.427812
 -0.101506 -0.459003
 -0.008816 -0.492060
 0.090604 -0.524394
 0.195696 -0.553865
 0.304722 -0.579411
 0.416039 -0.600928
 0.528434 -0.618831
 0.641134 -0.633705
 0.753691 -0.646116
 0.865863 -0.656550
 0.977533 -0.665400
 1.088660 -0.672973
 1.199237 -0.679512
ZONE T="4"
-1.000000 -0.150000 -0.915565 -0.152335
 -0.832480 -0.155149
 -0.750957 -0.158593
 -0.671245 -0.162877
 -0.593637 -0.168311
 -0.518453 -0.175346
 -0.446000 -0.184663
 -0.376462 -0.197276
 -0.309631 -0.214657
 -0.244347 -0.238725
 -0.177672 -0.271283
 -0.104562 -0.312340
 -0.019901 -0.358161
 0.077637 -0.402461
 0.184992 -0.440587
 0.297887 -0.471297
 0.413138 -0.495426
 0.528939 -0.514375
 0.644404 -0.529414
 0.759149 -0.541528
 0.873044 -0.551439
 0.986075 -0.559670
 1.098283 -0.566599
ZONE T="5"
-1.000000 0.000000 -0.915915 0.000000
 -0.833292 0.000000
 -0.752392 0.000000
 -0.673545 0.000000
 -0.597174 0.000000
 -0.523826 0.000000
 -0.454209 0.000000
 -0.389249 0.000000
 -0.330137 0.000000
 -0.278345 0.000000
 -0.235524 0.000000
 -0.203099 0.000000
 -0.181462 0.000000
 -0.169169 0.000000
 -0.163250 0.000000
 -0.160741 0.000000
 -0.159754 0.000000
 -0.159379 0.000000
 -0.159238 0.000000
 -0.159186 0.000000
 -0.159166 0.000000
 -0.159159 0.000000
 -0.159157 0.000000
 -0.159156 0.000000
ZONE T="6"
-1.000000 0.150000 -0.915565 0.152335
 -0.832480 0.155149
 -0.750957 0.158593
 -0.671245 0.162877
 -0.593637 0.168311
 -0.518453 0.175346
 -0.446000 0.184663
 -0.376462 0.197276
 -0.309631 0.214657
 -0.244347 0.238725
 -0.177672 0.271283
 -0.104562 0.312340
 -0.019901 0.358161
 0.077637 0.402461
 0.184992 0.440587
 0.297887 0.471297
 0.413138 0.495426
 0.528939 0.514375
 0.644404 0.529414
 0.759149 0.541528
 0.873044 0.551439
 0.986075 0.559670
 1.098283 0.566599
ZONE T="7"
-1.000000 0.300000 -0.914601 0.304380
 -0.830268 0.309594
 -0.747097 0.315870
 -0.665169 0.323511
 -0.584519 0.332922
 -0.505078 0.344631
 -0.426579 0.359302
 -0.348405 0.377685
 -0.269406 0.400452
 -0.187813 0.427812
 -0.101506 0.459003
 -0.008816 0.492060
 0.090604 0.524394
 0.195696 0.553865
 0.304722 0.579411
 0.416039 0.600928
 0.528434 0.618831
 0.641134 0.633705
 0.753691 0.646116
 0.865863 0.656550
 0.977533 0.665400
 1.088660 0.672973
 1.199237 0.679512
ZONE T="8"
-1.000000 0.450000 -0.913235 0.455956
 -0.827185 0.462921
 -0.741837 0.471120
 -0.657125 0.480830
 -0.572900 0.492372
 -0.488878 0.506104
 -0.404592 0.522372
 -0.319342 0.541416
 -0.232205 0.563225
 -0.142163 0.587377
 -0.048358 0.612974
 0.049606 0.638777
 0.151530 0.663544
 0.256735 0.686340
 0.364345 0.706683
 0.473518 0.724475
 0.583579 0.739868
 0.694038 0.753129
 0.804569 0.764556
 0.914964 0.774434
 1.025099 0.783012
 1.134904 0.790501
ZONE T="9"
-1.000000 0.600000 -0.911703 0.607022
 -0.823798 0.615075
 -0.736202 0.624336
 -0.648777 0.635000
 -0.561306 0.647263
 -0.473477 0.661298
 -0.384868 0.677208
 -0.294964 0.694973
 -0.203200 0.714378
 -0.109063 0.734989
 -0.012207 0.756177
 0.087453 0.777218
 0.189729 0.797440
 0.294223 0.816329
 0.400442 0.833584
 0.507894 0.849097
 0.616152 0.862902
 0.724874 0.875117
 0.833809 0.885904
 0.942775 0.895430
 1.051650 0.903859
 1.160354 0.911340
ZONE T="10"
-1.000000 0.750000 -0.910186 0.757639
 -0.820515 0.766237
 -0.730876 0.775913
 -0.641114 0.786782
 -0.551020 0.798938
 -0.460330 0.812438
 -0.368732 0.827267
 -0.275886 0.843317
 -0.181463 0.860365
 -0.085199 0.878076
 0.013059 0.896032
 0.113318 0.913790
 0.215445 0.930944
 0.319200 0.947171
 0.424285 0.962260
 0.530391 0.976108
 0.637231 0.988696
 0.744561 1.000069
 0.852184 1.010308
 0.959948 1.019512
 1.067739 1.027787
 1.175476 1.035235
